 Gaussian 16, Revision C.01,
 Gaussian 16:  ES64L-G16RevC.01  3-Jul-2019

 ----------------------------------------------------
 # opt freq B3LYP/6-31+g(d,p) scrf=(solvent=methanol)
 ----------------------------------------------------

 -------------------
 Title Card Required
 -------------------
 Symbolic Z-matrix:
 Charge =  0 Multiplicity = 1

 SCF Done:  E(RB3LYP) =  -306.348673522     A.U. after   13 cycles
 SCF Done:  E(RB3LYP) =  -306.405204249     A.U. after   11 cycles
 SCF Done:  E(RB3LYP) =  -306.439278736     A.U. after   12 cycles
 SCF Done:  E(RB3LYP) =  -306.457604172     A.U. after   12 cycles
 SCF Done:  E(RB3LYP) =  -306.467925438     A.U. after   12 cycles
 SCF Done:  E(RB3LYP) =  -306.470445987     A.U. after   13 cycles
 SCF Done:  E(RB3LYP) =  -306.476407444     A.U. after   12 cycles
 SCF Done:  E(RB3LYP) =  -306.478781199     A.U. after   11 cycles
 SCF Done:  E(RB3LYP) =  -306.481578649     A.U. after   12 cycles
 SCF Done:  E(RB3LYP) =  -306.482382116     A.U. after   11 cycles
 SCF Done:  E(RB3LYP) =  -306.483471517     A.U. after    9 cycles
 SCF Done:  E(RB3LYP) =  -306.483471637     A.U. after    8 cycles
 SCF Done:  E(RB3LYP) =  -306.483470948     A.U. after    8 cycles
 SCF Done:  E(RB3LYP) =  -306.483469948     A.U. after    8 cycles
 SCF Done:  E(RB3LYP) =  -306.483471654     A.U. after    8 cycles
 SCF Done:  E(RB3LYP) =  -306.483470164     A.U. after    8 cycles
 SCF Done:  E(RB3LYP) =  -306.483470162     A.U. after    8 cycles
 SCF Done:  E(RB3LYP) =  -306.483471698     A.U. after    8 cycles
 SCF Done:  E(RB3LYP) =  -306.483470130     A.U. after    8 cycles
 Optimization completed.
    -- Stationary point found.
 Normal termination of Gaussian 16 at Fri Jan 19 12:41:22 2024.

 ----------------------------------------------------------------------
 #N Geom=AllCheck Guess=TCheck SCRF=Check GenChk RB3LYP/6-31+G(d,p) Fre
 q
 ----------------------------------------------------------------------

 Structure from the checkpoint file:  "/home/usr6/a72176a/results/10-1021--ja5111392-MA_opt__B3LYP_methanol__2/10-1021--ja5111392-MA_opt_freq_B3LYP_6-31+g_d_p_scrf_solvent_methanol__2.chk"
 -------------------
 Title Card Required
 -------------------
 Charge =  0 Multiplicity = 1

                         Standard orientation:
 ---------------------------------------------------------------------
 Center     Atomic      Atomic             Coordinates (Angstroms)
 Number     Number       Type             X           Y           Z
 ---------------------------------------------------------------------
      1          6           0       -0.109411   -0.753028    0.008321
      2          8           0       -0.337558   -1.949283   -0.107009
      3          8           0        1.156161   -0.332482   -0.182308
      4          6           0        1.627613    0.990352    0.168540
      5          1           0        1.082288    1.391526    1.022913
      6          1           0        2.679508    0.861832    0.422860
      7          1           0        1.537673    1.658535   -0.689883
      8          6           0       -1.214409    0.192699    0.333980
      9          1           0       -1.945006   -0.227985    1.019552
     10          6           0       -1.437220    1.374350   -0.252281
     11          1           0       -2.339445    1.935281   -0.029122
     12          1           0       -0.763284    1.808693   -0.983137
 ---------------------------------------------------------------------

 SCF Done:  E(RB3LYP) =  -306.483470130     A.U. after    1 cycles

 The electronic state is 1-A.
 Alpha  occ. eigenvalues --  -19.21339 -19.15799 -10.34110 -10.25123 -10.22310
 Alpha  occ. eigenvalues --  -10.21951  -1.11586  -1.03240  -0.80456  -0.73991
 Alpha  occ. eigenvalues --   -0.65049  -0.57798  -0.52124  -0.49332  -0.48940
 Alpha  occ. eigenvalues --   -0.46040  -0.43329  -0.42040  -0.40093  -0.35346
 Alpha  occ. eigenvalues --   -0.31725  -0.30773  -0.28769
 Alpha virt. eigenvalues --   -0.06044   0.00568   0.01952   0.02419   0.03356
 Alpha virt. eigenvalues --    0.03995   0.06036   0.06424   0.07123   0.08135
 Alpha virt. eigenvalues --    0.08407   0.10340   0.11196   0.12077   0.12413

 Mulliken charges:
               1
     1  C    0.326924
     2  O   -0.515407
     3  O   -0.351823
     4  C   -0.239171
     5  H    0.171812
     6  H    0.171589
     7  H    0.169405
     8  C    0.001948
     9  H    0.174325
    10  C   -0.242567
    11  H    0.171412
    12  H    0.161553
 Sum of Mulliken charges =  -0.00000

 Dipole moment (field-independent basis, Debye):
    X=              0.0022    Y=              6.4116    Z=              0.9740  Tot=              6.4852
 Quadrupole moment (field-independent basis, Debye-Ang):
   XX=            -31.8864   YY=            -41.8394   ZZ=            -35.1707
   XY=              0.1340   XZ=             -0.1927   YZ=             -2.0991

  Exact polarizability:      69.319      -1.731      89.885      -0.932      -6.219      50.837
 Approx polarizability:      71.544      -1.362     106.561      -0.965      -9.728      57.531

                      1                      2                      3
                      A                      A                      A
 Frequencies --     90.5229               123.4184               162.9903
 Red. masses --      1.8972                 4.2110                 1.1511
 Frc consts  --      0.0092                 0.0378                 0.0180
 IR Inten    --      9.1018                 1.6626                 1.8596

                      4                      5                      6
                      A                      A                      A
 Frequencies --    247.4409               318.6917               424.8769
 Red. masses --      3.0079                 2.8344                 2.1530
 Frc consts  --      0.1085                 0.1696                 0.2290
 IR Inten    --      2.5421                 1.0142                 5.7650

                      7                      8                      9
                      A                      A                      A
 Frequencies --    551.4089               651.8568               748.1506
 Red. masses --      4.8429                 3.1510                 4.8172
 Frc consts  --      0.8676                 0.7889                 1.5886
 IR Inten    --     22.3446                10.7751                12.9461

                     10                     11                     12
                      A                      A                      A
 Frequencies --    804.2557               996.5741              1005.7692
 Red. masses --      3.7851                 1.3006                 1.3352
 Frc consts  --      1.4425                 0.7611                 0.7958
 IR Inten    --     38.2147                76.1689                63.8350

                     13                     14                     15
                      A                      A                      A
 Frequencies --   1029.1667              1088.4198              1167.1165
 Red. masses --      1.5848                 3.7846                 1.2747
 Frc consts  --      0.9890                 2.6416                 1.0230
 IR Inten    --     39.6654               159.6755                 5.3249

                     16                     17                     18
                      A                      A                      A
 Frequencies --   1187.1938              1286.0750              1316.1358
 Red. masses --      1.4303                 3.7431                 1.2519
 Frc consts  --      1.1878                 3.6476                 1.2777
 IR Inten    --     24.1608               477.0338                13.3611

                     19                     20                     21
                      A                      A                      A
 Frequencies --   1450.5988              1484.6324              1485.4622
 Red. masses --      1.2243                 1.0629                 1.1736
 Frc consts  --      1.5179                 1.3803                 1.5257
 IR Inten    --     29.6532                32.5867                 6.0821

                     22                     23                     24
                      A                      A                      A
 Frequencies --   1504.8154              1681.8278              1731.3881
 Red. masses --      1.0574                 4.7312                 9.4598
 Frc consts  --      1.4108                 7.8847                16.7079
 IR Inten    --     29.7388               118.6690               616.7019

                     25                     26                     27
                      A                      A                      A
 Frequencies --   3073.2697              3161.9934              3170.7082
 Red. masses --      1.0292                 1.1057                 1.0609
 Frc consts  --      5.7272                 6.5132                 6.2843
 IR Inten    --     38.2255                18.5082                 8.8119

                     28                     29                     30
                      A                      A                      A
 Frequencies --   3178.4720              3195.5961              3259.1410
 Red. masses --      1.1082                 1.0929                 1.1168
 Frc consts  --      6.5962                 6.5758                 6.9896
 IR Inten    --     14.2555                 1.0276                 5.0322

 - Thermochemistry -
 -------------------
 Temperature   298.150 Kelvin.  Pressure   1.00000 Atm.
 Atom     1 has atomic number  6 and mass  12.00000

 Molecular mass:    86.03678 amu.
 Principal axes and moments of inertia in atomic units:
                           1         2         3
     Eigenvalues --   438.32854 448.34443 837.58856
           X            0.93714   0.34895   0.00004
           Y           -0.34892   0.93707  -0.01231
           Z           -0.00434   0.01152   0.99992
 This molecule is an asymmetric top.
 Rotational symmetry number  1.
 Warning -- assumption of classical behavior for rotation
           may cause significant error
 Rotational temperatures (Kelvin)      0.19760     0.19319     0.10341
 Rotational constants (GHZ):           4.11733     4.02535     2.15469
 Zero-point vibrational energy     248691.5 (Joules/Mol)
                                   59.43869 (Kcal/Mol)
 Warning -- explicit consideration of   7 degrees of freedom as
           vibrations may cause significant error
 Vibrational temperatures:    130.24   177.57   234.51   356.01   458.53
          (Kelvin)            611.30   793.35   937.88  1076.42  1157.14
                             1433.85  1447.08  1480.74  1565.99  1679.22
                             1708.11  1850.38  1893.63  2087.09  2136.05
                             2137.25  2165.09  2419.78  2491.08  4421.75
                             4549.40  4561.94  4573.11  4597.75  4689.18

 Zero-point correction=                           0.094722 (Hartree/Particle)
 Thermal correction to Energy=                    0.101503
 Thermal correction to Enthalpy=                  0.102448
 Thermal correction to Gibbs Free Energy=         0.063995
 Sum of electronic and zero-point Energies=           -306.388749
 Sum of electronic and thermal Energies=              -306.381967
 Sum of electronic and thermal Enthalpies=            -306.381023
 Sum of electronic and thermal Free Energies=         -306.419475

                     E (Thermal)             CV                S
                      KCal/Mol        Cal/Mol-Kelvin    Cal/Mol-Kelvin
 Total                   63.694             22.517             80.930
 Electronic               0.000              0.000              0.000
 Translational            0.889              2.981             39.270
 Rotational               0.889              2.981             26.601
 Vibrational             61.917             16.556             15.059
 Vibration     1          0.602              1.956              3.649
 Vibration     2          0.610              1.929              3.046
 Vibration     3          0.623              1.888              2.515
 Vibration     4          0.661              1.767              1.749
 Vibration     5          0.705              1.638              1.317
 Vibration     6          0.787              1.416              0.876
 Vibration     7          0.907              1.137              0.541

 Optimization completed.
    -- Stationary point found.
 Normal termination of Gaussian 16 at Fri Jan 19 12:41:49 2024.
